# vtk DataFile Version 2.0
mesh_plate, Created by Gmsh
ASCII
DATASET UNSTRUCTURED_GRID
POINTS 6 double
0 0 0
2 0 0
2 2 0
0 2 0
0.9999999999973842 0 0
1.000000000004119 2 0

CELLS 12 36
1 0
1 1
1 2
1 3
2 0 4
2 4 1
2 1 2
2 2 5
2 5 3
2 3 0
4 0 4 5 3
4 4 1 2 5

CELL_TYPES 12
1
1
1
1
3
3
3
3
3
3
9
9

CELL_DATA 12
SCALARS CellEntityIds int 1
LOOKUP_TABLE default
-1
-1
-1
-1
5
5
-1
-1
-1
-1
-1
-1
